4000 atoms
1 atom types

0.0 54.1 xlo xhi
0.0 54.1 ylo yhi
0.0 54.1 zlo zhi

Masses
1 39.948

PairCoeffs
1 0.23 3.405 8.5

Atoms
1 1 0 0 0
2 1 0 2.705 2.705
3 1 2.705 0 2.705
4 1 2.705 2.705 0
5 1 0 0 5.41
6 1 0 2.705 8.115
7 1 2.705 0 8.115
8 1 2.705 2.705 5.41
9 1 0 0 10.82
10 1 0 2.705 13.525
11 1 2.705 0 13.525
12 1 2.705 2.705 10.82
13 1 0 0 16.23
14 1 0 2.705 18.935000000000002
15 1 2.705 0 18.935000000000002
16 1 2.705 2.705 16.23
17 1 0 0 21.64
18 1 0 2.705 24.345
19 1 2.705 0 24.345
20 1 2.705 2.705 21.64
21 1 0 0 27.05
22 1 0 2.705 29.755000000000003
23 1 2.705 0 29.755000000000003
24 1 2.705 2.705 27.05
25 1 0 0 32.46
26 1 0 2.705 35.165
27 1 2.705 0 35.165
28 1 2.705 2.705 32.46
29 1 0 0 37.870000000000005
30 1 0 2.705 40.575
31 1 2.705 0 40.575
32 1 2.705 2.705 37.870000000000005
33 1 0 0 43.28
34 1 0 2.705 45.985
35 1 2.705 0 45.985
36 1 2.705 2.705 43.28
37 1 0 0 48.69
38 1 0 2.705 51.395
39 1 2.705 0 51.395
40 1 2.705 2.705 48.69
41 1 0 5.41 0
42 1 0 8.115 2.705
43 1 2.705 5.41 2.705
44 1 2.705 8.115 0
45 1 0 5.41 5.41
46 1 0 8.115 8.115
47 1 2.705 5.41 8.115
48 1 2.705 8.115 5.41
49 1 0 5.41 10.82
50 1 0 8.115 13.525
51 1 2.705 5.41 13.525
52 1 2.705 8.115 10.82
53 1 0 5.41 16.23
54 1 0 8.115 18.935000000000002
55 1 2.705 5.41 18.935000000000002
56 1 2.705 8.115 16.23
57 1 0 5.41 21.64
58 1 0 8.115 24.345
59 1 2.705 5.41 24.345
60 1 2.705 8.115 21.64
61 1 0 5.41 27.05
62 1 0 8.115 29.755000000000003
63 1 2.705 5.41 29.755000000000003
64 1 2.705 8.115 27.05
65 1 0 5.41 32.46
66 1 0 8.115 35.165
67 1 2.705 5.41 35.165
68 1 2.705 8.115 32.46
69 1 0 5.41 37.870000000000005
70 1 0 8.115 40.575
71 1 2.705 5.41 40.575
72 1 2.705 8.115 37.870000000000005
73 1 0 5.41 43.28
74 1 0 8.115 45.985
75 1 2.705 5.41 45.985
76 1 2.705 8.115 43.28
77 1 0 5.41 48.69
78 1 0 8.115 51.395
79 1 2.705 5.41 51.395
80 1 2.705 8.115 48.69
81 1 0 10.82 0
82 1 0 13.525 2.705
83 1 2.705 10.82 2.705
84 1 2.705 13.525 0
85 1 0 10.82 5.41
86 1 0 13.525 8.115
87 1 2.705 10.82 8.115
88 1 2.705 13.525 5.41
89 1 0 10.82 10.82
90 1 0 13.525 13.525
91 1 2.705 10.82 13.525
92 1 2.705 13.525 10.82
93 1 0 10.82 16.23
94 1 0 13.525 18.935000000000002
95 1 2.705 10.82 18.935000000000002
96 1 2.705 13.525 16.23
97 1 0 10.82 21.64
98 1 0 13.525 24.345
99 1 2.705 10.82 24.345
100 1 2.705 13.525 21.64
101 1 0 10.82 27.05
102 1 0 13.525 29.755000000000003
103 1 2.705 10.82 29.755000000000003
104 1 2.705 13.525 27.05
105 1 0 10.82 32.46
106 1 0 13.525 35.165
107 1 2.705 10.82 35.165
108 1 2.705 13.525 32.46
109 1 0 10.82 37.870000000000005
110 1 0 13.525 40.575
111 1 2.705 10.82 40.575
112 1 2.705 13.525 37.870000000000005
113 1 0 10.82 43.28
114 1 0 13.525 45.985
115 1 2.705 10.82 45.985
116 1 2.705 13.525 43.28
117 1 0 10.82 48.69
118 1 0 13.525 51.395
119 1 2.705 10.82 51.395
120 1 2.705 13.525 48.69
121 1 0 16.23 0
122 1 0 18.935000000000002 2.705
123 1 2.705 16.23 2.705
124 1 2.705 18.935000000000002 0
125 1 0 16.23 5.41
126 1 0 18.935000000000002 8.115
127 1 2.705 16.23 8.115
128 1 2.705 18.935000000000002 5.41
129 1 0 16.23 10.82
130 1 0 18.935000000000002 13.525
131 1 2.705 16.23 13.525
132 1 2.705 18.935000000000002 10.82
133 1 0 16.23 16.23
134 1 0 18.935000000000002 18.935000000000002
135 1 2.705 16.23 18.935000000000002
136 1 2.705 18.935000000000002 16.23
137 1 0 16.23 21.64
138 1 0 18.935000000000002 24.345
139 1 2.705 16.23 24.345
140 1 2.705 18.935000000000002 21.64
141 1 0 16.23 27.05
142 1 0 18.935000000000002 29.755000000000003
143 1 2.705 16.23 29.755000000000003
144 1 2.705 18.935000000000002 27.05
145 1 0 16.23 32.46
146 1 0 18.935000000000002 35.165
147 1 2.705 16.23 35.165
148 1 2.705 18.935000000000002 32.46
149 1 0 16.23 37.870000000000005
150 1 0 18.935000000000002 40.575
151 1 2.705 16.23 40.575
152 1 2.705 18.935000000000002 37.870000000000005
153 1 0 16.23 43.28
154 1 0 18.935000000000002 45.985
155 1 2.705 16.23 45.985
156 1 2.705 18.935000000000002 43.28
157 1 0 16.23 48.69
158 1 0 18.935000000000002 51.395
159 1 2.705 16.23 51.395
160 1 2.705 18.935000000000002 48.69
161 1 0 21.64 0
162 1 0 24.345 2.705
163 1 2.705 21.64 2.705
164 1 2.705 24.345 0
165 1 0 21.64 5.41
166 1 0 24.345 8.115
167 1 2.705 21.64 8.115
168 1 2.705 24.345 5.41
169 1 0 21.64 10.82
170 1 0 24.345 13.525
171 1 2.705 21.64 13.525
172 1 2.705 24.345 10.82
173 1 0 21.64 16.23
174 1 0 24.345 18.935000000000002
175 1 2.705 21.64 18.935000000000002
176 1 2.705 24.345 16.23
177 1 0 21.64 21.64
178 1 0 24.345 24.345
179 1 2.705 21.64 24.345
180 1 2.705 24.345 21.64
181 1 0 21.64 27.05
182 1 0 24.345 29.755000000000003
183 1 2.705 21.64 29.755000000000003
184 1 2.705 24.345 27.05
185 1 0 21.64 32.46
186 1 0 24.345 35.165
187 1 2.705 21.64 35.165
188 1 2.705 24.345 32.46
189 1 0 21.64 37.870000000000005
190 1 0 24.345 40.575
191 1 2.705 21.64 40.575
192 1 2.705 24.345 37.870000000000005
193 1 0 21.64 43.28
194 1 0 24.345 45.985
195 1 2.705 21.64 45.985
196 1 2.705 24.345 43.28
197 1 0 21.64 48.69
198 1 0 24.345 51.395
199 1 2.705 21.64 51.395
200 1 2.705 24.345 48.69
201 1 0 27.05 0
202 1 0 29.755000000000003 2.705
203 1 2.705 27.05 2.705
204 1 2.705 29.755000000000003 0
205 1 0 27.05 5.41
206 1 0 29.755000000000003 8.115
207 1 2.705 27.05 8.115
208 1 2.705 29.755000000000003 5.41
209 1 0 27.05 10.82
210 1 0 29.755000000000003 13.525
211 1 2.705 27.05 13.525
212 1 2.705 29.755000000000003 10.82
213 1 0 27.05 16.23
214 1 0 29.755000000000003 18.935000000000002
215 1 2.705 27.05 18.935000000000002
216 1 2.705 29.755000000000003 16.23
217 1 0 27.05 21.64
218 1 0 29.755000000000003 24.345
219 1 2.705 27.05 24.345
220 1 2.705 29.755000000000003 21.64
221 1 0 27.05 27.05
222 1 0 29.755000000000003 29.755000000000003
223 1 2.705 27.05 29.755000000000003
224 1 2.705 29.755000000000003 27.05
225 1 0 27.05 32.46
226 1 0 29.755000000000003 35.165
227 1 2.705 27.05 35.165
228 1 2.705 29.755000000000003 32.46
229 1 0 27.05 37.870000000000005
230 1 0 29.755000000000003 40.575
231 1 2.705 27.05 40.575
232 1 2.705 29.755000000000003 37.870000000000005
233 1 0 27.05 43.28
234 1 0 29.755000000000003 45.985
235 1 2.705 27.05 45.985
236 1 2.705 29.755000000000003 43.28
237 1 0 27.05 48.69
238 1 0 29.755000000000003 51.395
239 1 2.705 27.05 51.395
240 1 2.705 29.755000000000003 48.69
241 1 0 32.46 0
242 1 0 35.165 2.705
243 1 2.705 32.46 2.705
244 1 2.705 35.165 0
245 1 0 32.46 5.41
246 1 0 35.165 8.115
247 1 2.705 32.46 8.115
248 1 2.705 35.165 5.41
249 1 0 32.46 10.82
250 1 0 35.165 13.525
251 1 2.705 32.46 13.525
252 1 2.705 35.165 10.82
253 1 0 32.46 16.23
254 1 0 35.165 18.935000000000002
255 1 2.705 32.46 18.935000000000002
256 1 2.705 35.165 16.23
257 1 0 32.46 21.64
258 1 0 35.165 24.345
259 1 2.705 32.46 24.345
260 1 2.705 35.165 21.64
261 1 0 32.46 27.05
262 1 0 35.165 29.755000000000003
263 1 2.705 32.46 29.755000000000003
264 1 2.705 35.165 27.05
265 1 0 32.46 32.46
266 1 0 35.165 35.165
267 1 2.705 32.46 35.165
268 1 2.705 35.165 32.46
269 1 0 32.46 37.870000000000005
270 1 0 35.165 40.575
271 1 2.705 32.46 40.575
272 1 2.705 35.165 37.870000000000005
273 1 0 32.46 43.28
274 1 0 35.165 45.985
275 1 2.705 32.46 45.985
276 1 2.705 35.165 43.28
277 1 0 32.46 48.69
278 1 0 35.165 51.395
279 1 2.705 32.46 51.395
280 1 2.705 35.165 48.69
281 1 0 37.870000000000005 0
282 1 0 40.575 2.705
283 1 2.705 37.870000000000005 2.705
284 1 2.705 40.575 0
285 1 0 37.870000000000005 5.41
286 1 0 40.575 8.115
287 1 2.705 37.870000000000005 8.115
288 1 2.705 40.575 5.41
289 1 0 37.870000000000005 10.82
290 1 0 40.575 13.525
291 1 2.705 37.870000000000005 13.525
292 1 2.705 40.575 10.82
293 1 0 37.870000000000005 16.23
294 1 0 40.575 18.935000000000002
295 1 2.705 37.870000000000005 18.935000000000002
296 1 2.705 40.575 16.23
297 1 0 37.870000000000005 21.64
298 1 0 40.575 24.345
299 1 2.705 37.870000000000005 24.345
300 1 2.705 40.575 21.64
301 1 0 37.870000000000005 27.05
302 1 0 40.575 29.755000000000003
303 1 2.705 37.870000000000005 29.755000000000003
304 1 2.705 40.575 27.05
305 1 0 37.870000000000005 32.46
306 1 0 40.575 35.165
307 1 2.705 37.870000000000005 35.165
308 1 2.705 40.575 32.46
309 1 0 37.870000000000005 37.870000000000005
310 1 0 40.575 40.575
311 1 2.705 37.870000000000005 40.575
312 1 2.705 40.575 37.870000000000005
313 1 0 37.870000000000005 43.28
314 1 0 40.575 45.985
315 1 2.705 37.870000000000005 45.985
316 1 2.705 40.575 43.28
317 1 0 37.870000000000005 48.69
318 1 0 40.575 51.395
319 1 2.705 37.870000000000005 51.395
320 1 2.705 40.575 48.69
321 1 0 43.28 0
322 1 0 45.985 2.705
323 1 2.705 43.28 2.705
324 1 2.705 45.985 0
325 1 0 43.28 5.41
326 1 0 45.985 8.115
327 1 2.705 43.28 8.115
328 1 2.705 45.985 5.41
329 1 0 43.28 10.82
330 1 0 45.985 13.525
331 1 2.705 43.28 13.525
332 1 2.705 45.985 10.82
333 1 0 43.28 16.23
334 1 0 45.985 18.935000000000002
335 1 2.705 43.28 18.935000000000002
336 1 2.705 45.985 16.23
337 1 0 43.28 21.64
338 1 0 45.985 24.345
339 1 2.705 43.28 24.345
340 1 2.705 45.985 21.64
341 1 0 43.28 27.05
342 1 0 45.985 29.755000000000003
343 1 2.705 43.28 29.755000000000003
344 1 2.705 45.985 27.05
345 1 0 43.28 32.46
346 1 0 45.985 35.165
347 1 2.705 43.28 35.165
348 1 2.705 45.985 32.46
349 1 0 43.28 37.870000000000005
350 1 0 45.985 40.575
351 1 2.705 43.28 40.575
352 1 2.705 45.985 37.870000000000005
353 1 0 43.28 43.28
354 1 0 45.985 45.985
355 1 2.705 43.28 45.985
356 1 2.705 45.985 43.28
357 1 0 43.28 48.69
358 1 0 45.985 51.395
359 1 2.705 43.28 51.395
360 1 2.705 45.985 48.69
361 1 0 48.69 0
362 1 0 51.395 2.705
363 1 2.705 48.69 2.705
364 1 2.705 51.395 0
365 1 0 48.69 5.41
366 1 0 51.395 8.115
367 1 2.705 48.69 8.115
368 1 2.705 51.395 5.41
369 1 0 48.69 10.82
370 1 0 51.395 13.525
371 1 2.705 48.69 13.525
372 1 2.705 51.395 10.82
373 1 0 48.69 16.23
374 1 0 51.395 18.935000000000002
375 1 2.705 48.69 18.935000000000002
376 1 2.705 51.395 16.23
377 1 0 48.69 21.64
378 1 0 51.395 24.345
379 1 2.705 48.69 24.345
380 1 2.705 51.395 21.64
381 1 0 48.69 27.05
382 1 0 51.395 29.755000000000003
383 1 2.705 48.69 29.755000000000003
384 1 2.705 51.395 27.05
385 1 0 48.69 32.46
386 1 0 51.395 35.165
387 1 2.705 48.69 35.165
388 1 2.705 51.395 32.46
389 1 0 48.69 37.870000000000005
390 1 0 51.395 40.575
391 1 2.705 48.69 40.575
392 1 2.705 51.395 37.870000000000005
393 1 0 48.69 43.28
394 1 0 51.395 45.985
395 1 2.705 48.69 45.985
396 1 2.705 51.395 43.28
397 1 0 48.69 48.69
398 1 0 51.395 51.395
399 1 2.705 48.69 51.395
400 1 2.705 51.395 48.69
401 1 5.41 0 0
402 1 5.41 2.705 2.705
403 1 8.115 0 2.705
404 1 8.115 2.705 0
405 1 5.41 0 5.41
406 1 5.41 2.705 8.115
407 1 8.115 0 8.115
408 1 8.115 2.705 5.41
409 1 5.41 0 10.82
410 1 5.41 2.705 13.525
411 1 8.115 0 13.525
412 1 8.115 2.705 10.82
413 1 5.41 0 16.23
414 1 5.41 2.705 18.935000000000002
415 1 8.115 0 18.935000000000002
416 1 8.115 2.705 16.23
417 1 5.41 0 21.64
418 1 5.41 2.705 24.345
419 1 8.115 0 24.345
420 1 8.115 2.705 21.64
421 1 5.41 0 27.05
422 1 5.41 2.705 29.755000000000003
423 1 8.115 0 29.755000000000003
424 1 8.115 2.705 27.05
425 1 5.41 0 32.46
426 1 5.41 2.705 35.165
427 1 8.115 0 35.165
428 1 8.115 2.705 32.46
429 1 5.41 0 37.870000000000005
430 1 5.41 2.705 40.575
431 1 8.115 0 40.575
432 1 8.115 2.705 37.870000000000005
433 1 5.41 0 43.28
434 1 5.41 2.705 45.985
435 1 8.115 0 45.985
436 1 8.115 2.705 43.28
437 1 5.41 0 48.69
438 1 5.41 2.705 51.395
439 1 8.115 0 51.395
440 1 8.115 2.705 48.69
441 1 5.41 5.41 0
442 1 5.41 8.115 2.705
443 1 8.115 5.41 2.705
444 1 8.115 8.115 0
445 1 5.41 5.41 5.41
446 1 5.41 8.115 8.115
447 1 8.115 5.41 8.115
448 1 8.115 8.115 5.41
449 1 5.41 5.41 10.82
450 1 5.41 8.115 13.525
451 1 8.115 5.41 13.525
452 1 8.115 8.115 10.82
453 1 5.41 5.41 16.23
454 1 5.41 8.115 18.935000000000002
455 1 8.115 5.41 18.935000000000002
456 1 8.115 8.115 16.23
457 1 5.41 5.41 21.64
458 1 5.41 8.115 24.345
459 1 8.115 5.41 24.345
460 1 8.115 8.115 21.64
461 1 5.41 5.41 27.05
462 1 5.41 8.115 29.755000000000003
463 1 8.115 5.41 29.755000000000003
464 1 8.115 8.115 27.05
465 1 5.41 5.41 32.46
466 1 5.41 8.115 35.165
467 1 8.115 5.41 35.165
468 1 8.115 8.115 32.46
469 1 5.41 5.41 37.870000000000005
470 1 5.41 8.115 40.575
471 1 8.115 5.41 40.575
472 1 8.115 8.115 37.870000000000005
473 1 5.41 5.41 43.28
474 1 5.41 8.115 45.985
475 1 8.115 5.41 45.985
476 1 8.115 8.115 43.28
477 1 5.41 5.41 48.69
478 1 5.41 8.115 51.395
479 1 8.115 5.41 51.395
480 1 8.115 8.115 48.69
481 1 5.41 10.82 0
482 1 5.41 13.525 2.705
483 1 8.115 10.82 2.705
484 1 8.115 13.525 0
485 1 5.41 10.82 5.41
486 1 5.41 13.525 8.115
487 1 8.115 10.82 8.115
488 1 8.115 13.525 5.41
489 1 5.41 10.82 10.82
490 1 5.41 13.525 13.525
491 1 8.115 10.82 13.525
492 1 8.115 13.525 10.82
493 1 5.41 10.82 16.23
494 1 5.41 13.525 18.935000000000002
495 1 8.115 10.82 18.935000000000002
496 1 8.115 13.525 16.23
497 1 5.41 10.82 21.64
498 1 5.41 13.525 24.345
499 1 8.115 10.82 24.345
500 1 8.115 13.525 21.64
501 1 5.41 10.82 27.05
502 1 5.41 13.525 29.755000000000003
503 1 8.115 10.82 29.755000000000003
504 1 8.115 13.525 27.05
505 1 5.41 10.82 32.46
506 1 5.41 13.525 35.165
507 1 8.115 10.82 35.165
508 1 8.115 13.525 32.46
509 1 5.41 10.82 37.870000000000005
510 1 5.41 13.525 40.575
511 1 8.115 10.82 40.575
512 1 8.115 13.525 37.870000000000005
513 1 5.41 10.82 43.28
514 1 5.41 13.525 45.985
515 1 8.115 10.82 45.985
516 1 8.115 13.525 43.28
517 1 5.41 10.82 48.69
518 1 5.41 13.525 51.395
519 1 8.115 10.82 51.395
520 1 8.115 13.525 48.69
521 1 5.41 16.23 0
522 1 5.41 18.935000000000002 2.705
523 1 8.115 16.23 2.705
524 1 8.115 18.935000000000002 0
525 1 5.41 16.23 5.41
526 1 5.41 18.935000000000002 8.115
527 1 8.115 16.23 8.115
528 1 8.115 18.935000000000002 5.41
529 1 5.41 16.23 10.82
530 1 5.41 18.935000000000002 13.525
531 1 8.115 16.23 13.525
532 1 8.115 18.935000000000002 10.82
533 1 5.41 16.23 16.23
534 1 5.41 18.935000000000002 18.935000000000002
535 1 8.115 16.23 18.935000000000002
536 1 8.115 18.935000000000002 16.23
537 1 5.41 16.23 21.64
538 1 5.41 18.935000000000002 24.345
539 1 8.115 16.23 24.345
540 1 8.115 18.935000000000002 21.64
541 1 5.41 16.23 27.05
542 1 5.41 18.935000000000002 29.755000000000003
543 1 8.115 16.23 29.755000000000003
544 1 8.115 18.935000000000002 27.05
545 1 5.41 16.23 32.46
546 1 5.41 18.935000000000002 35.165
547 1 8.115 16.23 35.165
548 1 8.115 18.935000000000002 32.46
549 1 5.41 16.23 37.870000000000005
550 1 5.41 18.935000000000002 40.575
551 1 8.115 16.23 40.575
552 1 8.115 18.935000000000002 37.870000000000005
553 1 5.41 16.23 43.28
554 1 5.41 18.935000000000002 45.985
555 1 8.115 16.23 45.985
556 1 8.115 18.935000000000002 43.28
557 1 5.41 16.23 48.69
558 1 5.41 18.935000000000002 51.395
559 1 8.115 16.23 51.395
560 1 8.115 18.935000000000002 48.69
561 1 5.41 21.64 0
562 1 5.41 24.345 2.705
563 1 8.115 21.64 2.705
564 1 8.115 24.345 0
565 1 5.41 21.64 5.41
566 1 5.41 24.345 8.115
567 1 8.115 21.64 8.115
568 1 8.115 24.345 5.41
569 1 5.41 21.64 10.82
570 1 5.41 24.345 13.525
571 1 8.115 21.64 13.525
572 1 8.115 24.345 10.82
573 1 5.41 21.64 16.23
574 1 5.41 24.345 18.935000000000002
575 1 8.115 21.64 18.935000000000002
576 1 8.115 24.345 16.23
577 1 5.41 21.64 21.64
578 1 5.41 24.345 24.345
579 1 8.115 21.64 24.345
580 1 8.115 24.345 21.64
581 1 5.41 21.64 27.05
582 1 5.41 24.345 29.755000000000003
583 1 8.115 21.64 29.755000000000003
584 1 8.115 24.345 27.05
585 1 5.41 21.64 32.46
586 1 5.41 24.345 35.165
587 1 8.115 21.64 35.165
588 1 8.115 24.345 32.46
589 1 5.41 21.64 37.870000000000005
590 1 5.41 24.345 40.575
591 1 8.115 21.64 40.575
592 1 8.115 24.345 37.870000000000005
593 1 5.41 21.64 43.28
594 1 5.41 24.345 45.985
595 1 8.115 21.64 45.985
596 1 8.115 24.345 43.28
597 1 5.41 21.64 48.69
598 1 5.41 24.345 51.395
599 1 8.115 21.64 51.395
600 1 8.115 24.345 48.69
601 1 5.41 27.05 0
602 1 5.41 29.755000000000003 2.705
603 1 8.115 27.05 2.705
604 1 8.115 29.755000000000003 0
605 1 5.41 27.05 5.41
606 1 5.41 29.755000000000003 8.115
607 1 8.115 27.05 8.115
608 1 8.115 29.755000000000003 5.41
609 1 5.41 27.05 10.82
610 1 5.41 29.755000000000003 13.525
611 1 8.115 27.05 13.525
612 1 8.115 29.755000000000003 10.82
613 1 5.41 27.05 16.23
614 1 5.41 29.755000000000003 18.935000000000002
615 1 8.115 27.05 18.935000000000002
616 1 8.115 29.755000000000003 16.23
617 1 5.41 27.05 21.64
618 1 5.41 29.755000000000003 24.345
619 1 8.115 27.05 24.345
620 1 8.115 29.755000000000003 21.64
621 1 5.41 27.05 27.05
622 1 5.41 29.755000000000003 29.755000000000003
623 1 8.115 27.05 29.755000000000003
624 1 8.115 29.755000000000003 27.05
625 1 5.41 27.05 32.46
626 1 5.41 29.755000000000003 35.165
627 1 8.115 27.05 35.165
628 1 8.115 29.755000000000003 32.46
629 1 5.41 27.05 37.870000000000005
630 1 5.41 29.755000000000003 40.575
631 1 8.115 27.05 40.575
632 1 8.115 29.755000000000003 37.870000000000005
633 1 5.41 27.05 43.28
634 1 5.41 29.755000000000003 45.985
635 1 8.115 27.05 45.985
636 1 8.115 29.755000000000003 43.28
637 1 5.41 27.05 48.69
638 1 5.41 29.755000000000003 51.395
639 1 8.115 27.05 51.395
640 1 8.115 29.755000000000003 48.69
641 1 5.41 32.46 0
642 1 5.41 35.165 2.705
643 1 8.115 32.46 2.705
644 1 8.115 35.165 0
645 1 5.41 32.46 5.41
646 1 5.41 35.165 8.115
647 1 8.115 32.46 8.115
648 1 8.115 35.165 5.41
649 1 5.41 32.46 10.82
650 1 5.41 35.165 13.525
651 1 8.115 32.46 13.525
652 1 8.115 35.165 10.82
653 1 5.41 32.46 16.23
654 1 5.41 35.165 18.935000000000002
655 1 8.115 32.46 18.935000000000002
656 1 8.115 35.165 16.23
657 1 5.41 32.46 21.64
658 1 5.41 35.165 24.345
659 1 8.115 32.46 24.345
660 1 8.115 35.165 21.64
661 1 5.41 32.46 27.05
662 1 5.41 35.165 29.755000000000003
663 1 8.115 32.46 29.755000000000003
664 1 8.115 35.165 27.05
665 1 5.41 32.46 32.46
666 1 5.41 35.165 35.165
667 1 8.115 32.46 35.165
668 1 8.115 35.165 32.46
669 1 5.41 32.46 37.870000000000005
670 1 5.41 35.165 40.575
671 1 8.115 32.46 40.575
672 1 8.115 35.165 37.870000000000005
673 1 5.41 32.46 43.28
674 1 5.41 35.165 45.985
675 1 8.115 32.46 45.985
676 1 8.115 35.165 43.28
677 1 5.41 32.46 48.69
678 1 5.41 35.165 51.395
679 1 8.115 32.46 51.395
680 1 8.115 35.165 48.69
681 1 5.41 37.870000000000005 0
682 1 5.41 40.575 2.705
683 1 8.115 37.870000000000005 2.705
684 1 8.115 40.575 0
685 1 5.41 37.870000000000005 5.41
686 1 5.41 40.575 8.115
687 1 8.115 37.870000000000005 8.115
688 1 8.115 40.575 5.41
689 1 5.41 37.870000000000005 10.82
690 1 5.41 40.575 13.525
691 1 8.115 37.870000000000005 13.525
692 1 8.115 40.575 10.82
693 1 5.41 37.870000000000005 16.23
694 1 5.41 40.575 18.935000000000002
695 1 8.115 37.870000000000005 18.935000000000002
696 1 8.115 40.575 16.23
697 1 5.41 37.870000000000005 21.64
698 1 5.41 40.575 24.345
699 1 8.115 37.870000000000005 24.345
700 1 8.115 40.575 21.64
701 1 5.41 37.870000000000005 27.05
702 1 5.41 40.575 29.755000000000003
703 1 8.115 37.870000000000005 29.755000000000003
704 1 8.115 40.575 27.05
705 1 5.41 37.870000000000005 32.46
706 1 5.41 40.575 35.165
707 1 8.115 37.870000000000005 35.165
708 1 8.115 40.575 32.46
709 1 5.41 37.870000000000005 37.870000000000005
710 1 5.41 40.575 40.575
711 1 8.115 37.870000000000005 40.575
712 1 8.115 40.575 37.870000000000005
713 1 5.41 37.870000000000005 43.28
714 1 5.41 40.575 45.985
715 1 8.115 37.870000000000005 45.985
716 1 8.115 40.575 43.28
717 1 5.41 37.870000000000005 48.69
718 1 5.41 40.575 51.395
719 1 8.115 37.870000000000005 51.395
720 1 8.115 40.575 48.69
721 1 5.41 43.28 0
722 1 5.41 45.985 2.705
723 1 8.115 43.28 2.705
724 1 8.115 45.985 0
725 1 5.41 43.28 5.41
726 1 5.41 45.985 8.115
727 1 8.115 43.28 8.115
728 1 8.115 45.985 5.41
729 1 5.41 43.28 10.82
730 1 5.41 45.985 13.525
731 1 8.115 43.28 13.525
732 1 8.115 45.985 10.82
733 1 5.41 43.28 16.23
734 1 5.41 45.985 18.935000000000002
735 1 8.115 43.28 18.935000000000002
736 1 8.115 45.985 16.23
737 1 5.41 43.28 21.64
738 1 5.41 45.985 24.345
739 1 8.115 43.28 24.345
740 1 8.115 45.985 21.64
741 1 5.41 43.28 27.05
742 1 5.41 45.985 29.755000000000003
743 1 8.115 43.28 29.755000000000003
744 1 8.115 45.985 27.05
745 1 5.41 43.28 32.46
746 1 5.41 45.985 35.165
747 1 8.115 43.28 35.165
748 1 8.115 45.985 32.46
749 1 5.41 43.28 37.870000000000005
750 1 5.41 45.985 40.575
751 1 8.115 43.28 40.575
752 1 8.115 45.985 37.870000000000005
753 1 5.41 43.28 43.28
754 1 5.41 45.985 45.985
755 1 8.115 43.28 45.985
756 1 8.115 45.985 43.28
757 1 5.41 43.28 48.69
758 1 5.41 45.985 51.395
759 1 8.115 43.28 51.395
760 1 8.115 45.985 48.69
761 1 5.41 48.69 0
762 1 5.41 51.395 2.705
763 1 8.115 48.69 2.705
764 1 8.115 51.395 0
765 1 5.41 48.69 5.41
766 1 5.41 51.395 8.115
767 1 8.115 48.69 8.115
768 1 8.115 51.395 5.41
769 1 5.41 48.69 10.82
770 1 5.41 51.395 13.525
771 1 8.115 48.69 13.525
772 1 8.115 51.395 10.82
773 1 5.41 48.69 16.23
774 1 5.41 51.395 18.935000000000002
775 1 8.115 48.69 18.935000000000002
776 1 8.115 51.395 16.23
777 1 5.41 48.69 21.64
778 1 5.41 51.395 24.345
779 1 8.115 48.69 24.345
780 1 8.115 51.395 21.64
781 1 5.41 48.69 27.05
782 1 5.41 51.395 29.755000000000003
783 1 8.115 48.69 29.755000000000003
784 1 8.115 51.395 27.05
785 1 5.41 48.69 32.46
786 1 5.41 51.395 35.165
787 1 8.115 48.69 35.165
788 1 8.115 51.395 32.46
789 1 5.41 48.69 37.870000000000005
790 1 5.41 51.395 40.575
791 1 8.115 48.69 40.575
792 1 8.115 51.395 37.870000000000005
793 1 5.41 48.69 43.28
794 1 5.41 51.395 45.985
795 1 8.115 48.69 45.985
796 1 8.115 51.395 43.28
797 1 5.41 48.69 48.69
798 1 5.41 51.395 51.395
799 1 8.115 48.69 51.395
800 1 8.115 51.395 48.69
801 1 10.82 0 0
802 1 10.82 2.705 2.705
803 1 13.525 0 2.705
804 1 13.525 2.705 0
805 1 10.82 0 5.41
806 1 10.82 2.705 8.115
807 1 13.525 0 8.115
808 1 13.525 2.705 5.41
809 1 10.82 0 10.82
810 1 10.82 2.705 13.525
811 1 13.525 0 13.525
812 1 13.525 2.705 10.82
813 1 10.82 0 16.23
814 1 10.82 2.705 18.935000000000002
815 1 13.525 0 18.935000000000002
816 1 13.525 2.705 16.23
817 1 10.82 0 21.64
818 1 10.82 2.705 24.345
819 1 13.525 0 24.345
820 1 13.525 2.705 21.64
821 1 10.82 0 27.05
822 1 10.82 2.705 29.755000000000003
823 1 13.525 0 29.755000000000003
824 1 13.525 2.705 27.05
825 1 10.82 0 32.46
826 1 10.82 2.705 35.165
827 1 13.525 0 35.165
828 1 13.525 2.705 32.46
829 1 10.82 0 37.870000000000005
830 1 10.82 2.705 40.575
831 1 13.525 0 40.575
832 1 13.525 2.705 37.870000000000005
833 1 10.82 0 43.28
834 1 10.82 2.705 45.985
835 1 13.525 0 45.985
836 1 13.525 2.705 43.28
837 1 10.82 0 48.69
838 1 10.82 2.705 51.395
839 1 13.525 0 51.395
840 1 13.525 2.705 48.69
841 1 10.82 5.41 0
842 1 10.82 8.115 2.705
843 1 13.525 5.41 2.705
844 1 13.525 8.115 0
845 1 10.82 5.41 5.41
846 1 10.82 8.115 8.115
847 1 13.525 5.41 8.115
848 1 13.525 8.115 5.41
849 1 10.82 5.41 10.82
850 1 10.82 8.115 13.525
851 1 13.525 5.41 13.525
852 1 13.525 8.115 10.82
853 1 10.82 5.41 16.23
854 1 10.82 8.115 18.935000000000002
855 1 13.525 5.41 18.935000000000002
856 1 13.525 8.115 16.23
857 1 10.82 5.41 21.64
858 1 10.82 8.115 24.345
859 1 13.525 5.41 24.345
860 1 13.525 8.115 21.64
861 1 10.82 5.41 27.05
862 1 10.82 8.115 29.755000000000003
863 1 13.525 5.41 29.755000000000003
864 1 13.525 8.115 27.05
865 1 10.82 5.41 32.46
866 1 10.82 8.115 35.165
867 1 13.525 5.41 35.165
868 1 13.525 8.115 32.46
869 1 10.82 5.41 37.870000000000005
870 1 10.82 8.115 40.575
871 1 13.525 5.41 40.575
872 1 13.525 8.115 37.870000000000005
873 1 10.82 5.41 43.28
874 1 10.82 8.115 45.985
875 1 13.525 5.41 45.985
876 1 13.525 8.115 43.28
877 1 10.82 5.41 48.69
878 1 10.82 8.115 51.395
879 1 13.525 5.41 51.395
880 1 13.525 8.115 48.69
881 1 10.82 10.82 0
882 1 10.82 13.525 2.705
883 1 13.525 10.82 2.705
884 1 13.525 13.525 0
885 1 10.82 10.82 5.41
886 1 10.82 13.525 8.115
887 1 13.525 10.82 8.115
888 1 13.525 13.525 5.41
889 1 10.82 10.82 10.82
890 1 10.82 13.525 13.525
891 1 13.525 10.82 13.525
892 1 13.525 13.525 10.82
893 1 10.82 10.82 16.23
894 1 10.82 13.525 18.935000000000002
895 1 13.525 10.82 18.935000000000002
896 1 13.525 13.525 16.23
897 1 10.82 10.82 21.64
898 1 10.82 13.525 24.345
899 1 13.525 10.82 24.345
900 1 13.525 13.525 21.64
901 1 10.82 10.82 27.05
902 1 10.82 13.525 29.755000000000003
903 1 13.525 10.82 29.755000000000003
904 1 13.525 13.525 27.05
905 1 10.82 10.82 32.46
906 1 10.82 13.525 35.165
907 1 13.525 10.82 35.165
908 1 13.525 13.525 32.46
909 1 10.82 10.82 37.870000000000005
910 1 10.82 13.525 40.575
911 1 13.525 10.82 40.575
912 1 13.525 13.525 37.870000000000005
913 1 10.82 10.82 43.28
914 1 10.82 13.525 45.985
915 1 13.525 10.82 45.985
916 1 13.525 13.525 43.28
917 1 10.82 10.82 48.69
918 1 10.82 13.525 51.395
919 1 13.525 10.82 51.395
920 1 13.525 13.525 48.69
921 1 10.82 16.23 0
922 1 10.82 18.935000000000002 2.705
923 1 13.525 16.23 2.705
924 1 13.525 18.935000000000002 0
925 1 10.82 16.23 5.41
926 1 10.82 18.935000000000002 8.115
927 1 13.525 16.23 8.115
928 1 13.525 18.935000000000002 5.41
929 1 10.82 16.23 10.82
930 1 10.82 18.935000000000002 13.525
931 1 13.525 16.23 13.525
932 1 13.525 18.935000000000002 10.82
933 1 10.82 16.23 16.23
934 1 10.82 18.935000000000002 18.935000000000002
935 1 13.525 16.23 18.935000000000002
936 1 13.525 18.935000000000002 16.23
937 1 10.82 16.23 21.64
938 1 10.82 18.935000000000002 24.345
939 1 13.525 16.23 24.345
940 1 13.525 18.935000000000002 21.64
941 1 10.82 16.23 27.05
942 1 10.82 18.935000000000002 29.755000000000003
943 1 13.525 16.23 29.755000000000003
944 1 13.525 18.935000000000002 27.05
945 1 10.82 16.23 32.46
946 1 10.82 18.935000000000002 35.165
947 1 13.525 16.23 35.165
948 1 13.525 18.935000000000002 32.46
949 1 10.82 16.23 37.870000000000005
950 1 10.82 18.935000000000002 40.575
951 1 13.525 16.23 40.575
952 1 13.525 18.935000000000002 37.870000000000005
953 1 10.82 16.23 43.28
954 1 10.82 18.935000000000002 45.985
955 1 13.525 16.23 45.985
956 1 13.525 18.935000000000002 43.28
957 1 10.82 16.23 48.69
958 1 10.82 18.935000000000002 51.395
959 1 13.525 16.23 51.395
960 1 13.525 18.935000000000002 48.69
961 1 10.82 21.64 0
962 1 10.82 24.345 2.705
963 1 13.525 21.64 2.705
964 1 13.525 24.345 0
965 1 10.82 21.64 5.41
966 1 10.82 24.345 8.115
967 1 13.525 21.64 8.115
968 1 13.525 24.345 5.41
969 1 10.82 21.64 10.82
970 1 10.82 24.345 13.525
971 1 13.525 21.64 13.525
972 1 13.525 24.345 10.82
973 1 10.82 21.64 16.23
974 1 10.82 24.345 18.935000000000002
975 1 13.525 21.64 18.935000000000002
976 1 13.525 24.345 16.23
977 1 10.82 21.64 21.64
978 1 10.82 24.345 24.345
979 1 13.525 21.64 24.345
980 1 13.525 24.345 21.64
981 1 10.82 21.64 27.05
982 1 10.82 24.345 29.755000000000003
983 1 13.525 21.64 29.755000000000003
984 1 13.525 24.345 27.05
985 1 10.82 21.64 32.46
986 1 10.82 24.345 35.165
987 1 13.525 21.64 35.165
988 1 13.525 24.345 32.46
989 1 10.82 21.64 37.870000000000005
990 1 10.82 24.345 40.575
991 1 13.525 21.64 40.575
992 1 13.525 24.345 37.870000000000005
993 1 10.82 21.64 43.28
994 1 10.82 24.345 45.985
995 1 13.525 21.64 45.985
996 1 13.525 24.345 43.28
997 1 10.82 21.64 48.69
998 1 10.82 24.345 51.395
999 1 13.525 21.64 51.395
1000 1 13.525 24.345 48.69
1001 1 10.82 27.05 0
1002 1 10.82 29.755000000000003 2.705
1003 1 13.525 27.05 2.705
1004 1 13.525 29.755000000000003 0
1005 1 10.82 27.05 5.41
1006 1 10.82 29.755000000000003 8.115
1007 1 13.525 27.05 8.115
1008 1 13.525 29.755000000000003 5.41
1009 1 10.82 27.05 10.82
1010 1 10.82 29.755000000000003 13.525
1011 1 13.525 27.05 13.525
1012 1 13.525 29.755000000000003 10.82
1013 1 10.82 27.05 16.23
1014 1 10.82 29.755000000000003 18.935000000000002
1015 1 13.525 27.05 18.935000000000002
1016 1 13.525 29.755000000000003 16.23
1017 1 10.82 27.05 21.64
1018 1 10.82 29.755000000000003 24.345
1019 1 13.525 27.05 24.345
1020 1 13.525 29.755000000000003 21.64
1021 1 10.82 27.05 27.05
1022 1 10.82 29.755000000000003 29.755000000000003
1023 1 13.525 27.05 29.755000000000003
1024 1 13.525 29.755000000000003 27.05
1025 1 10.82 27.05 32.46
1026 1 10.82 29.755000000000003 35.165
1027 1 13.525 27.05 35.165
1028 1 13.525 29.755000000000003 32.46
1029 1 10.82 27.05 37.870000000000005
1030 1 10.82 29.755000000000003 40.575
1031 1 13.525 27.05 40.575
1032 1 13.525 29.755000000000003 37.870000000000005
1033 1 10.82 27.05 43.28
1034 1 10.82 29.755000000000003 45.985
1035 1 13.525 27.05 45.985
1036 1 13.525 29.755000000000003 43.28
1037 1 10.82 27.05 48.69
1038 1 10.82 29.755000000000003 51.395
1039 1 13.525 27.05 51.395
1040 1 13.525 29.755000000000003 48.69
1041 1 10.82 32.46 0
1042 1 10.82 35.165 2.705
1043 1 13.525 32.46 2.705
1044 1 13.525 35.165 0
1045 1 10.82 32.46 5.41
1046 1 10.82 35.165 8.115
1047 1 13.525 32.46 8.115
1048 1 13.525 35.165 5.41
1049 1 10.82 32.46 10.82
1050 1 10.82 35.165 13.525
1051 1 13.525 32.46 13.525
1052 1 13.525 35.165 10.82
1053 1 10.82 32.46 16.23
1054 1 10.82 35.165 18.935000000000002
1055 1 13.525 32.46 18.935000000000002
1056 1 13.525 35.165 16.23
1057 1 10.82 32.46 21.64
1058 1 10.82 35.165 24.345
1059 1 13.525 32.46 24.345
1060 1 13.525 35.165 21.64
1061 1 10.82 32.46 27.05
1062 1 10.82 35.165 29.755000000000003
1063 1 13.525 32.46 29.755000000000003
1064 1 13.525 35.165 27.05
1065 1 10.82 32.46 32.46
1066 1 10.82 35.165 35.165
1067 1 13.525 32.46 35.165
1068 1 13.525 35.165 32.46
1069 1 10.82 32.46 37.870000000000005
1070 1 10.82 35.165 40.575
1071 1 13.525 32.46 40.575
1072 1 13.525 35.165 37.870000000000005
1073 1 10.82 32.46 43.28
1074 1 10.82 35.165 45.985
1075 1 13.525 32.46 45.985
1076 1 13.525 35.165 43.28
1077 1 10.82 32.46 48.69
1078 1 10.82 35.165 51.395
1079 1 13.525 32.46 51.395
1080 1 13.525 35.165 48.69
1081 1 10.82 37.870000000000005 0
1082 1 10.82 40.575 2.705
1083 1 13.525 37.870000000000005 2.705
1084 1 13.525 40.575 0
1085 1 10.82 37.870000000000005 5.41
1086 1 10.82 40.575 8.115
1087 1 13.525 37.870000000000005 8.115
1088 1 13.525 40.575 5.41
1089 1 10.82 37.870000000000005 10.82
1090 1 10.82 40.575 13.525
1091 1 13.525 37.870000000000005 13.525
1092 1 13.525 40.575 10.82
1093 1 10.82 37.870000000000005 16.23
1094 1 10.82 40.575 18.935000000000002
1095 1 13.525 37.870000000000005 18.935000000000002
1096 1 13.525 40.575 16.23
1097 1 10.82 37.870000000000005 21.64