# Argon box with LJ parameters and cutoff

2 atoms
1 atom types

0.0 5.0 xlo xhi
0.0 5.0 ylo yhi
0.0 5.0 zlo zhi

Masses
1 39.948

PairCoeffs
1 0.238 3.405 8.5   # epsilon sigma cutoff

Atoms
1 1 0.0 0.0 0.0
2 1 4.5 0.0 0.0
