# Argon box with LJ parameters and cutoff

500 atoms
1 atom types

0.0 27.05 xlo xhi
0.0 27.05 ylo yhi
0.0 27.05 zlo zhi

Masses
1 39.948

PairCoeffs
1 0.238 3.405 8.5   # epsilon sigma cutoff

Atoms
1 1 0 0 0
2 1 0 2.705 2.705
3 1 2.705 0 2.705
4 1 2.705 2.705 0
5 1 0 0 5.41
6 1 0 2.705 8.115
7 1 2.705 0 8.115
8 1 2.705 2.705 5.41
9 1 0 0 10.82
10 1 0 2.705 13.525
11 1 2.705 0 13.525
12 1 2.705 2.705 10.82
13 1 0 0 16.23
14 1 0 2.705 18.935000000000002
15 1 2.705 0 18.935000000000002
16 1 2.705 2.705 16.23
17 1 0 0 21.64
18 1 0 2.705 24.345
19 1 2.705 0 24.345
20 1 2.705 2.705 21.64
21 1 0 5.41 0
22 1 0 8.115 2.705
23 1 2.705 5.41 2.705
24 1 2.705 8.115 0
25 1 0 5.41 5.41
26 1 0 8.115 8.115
27 1 2.705 5.41 8.115
28 1 2.705 8.115 5.41
29 1 0 5.41 10.82
30 1 0 8.115 13.525
31 1 2.705 5.41 13.525
32 1 2.705 8.115 10.82
33 1 0 5.41 16.23
34 1 0 8.115 18.935000000000002
35 1 2.705 5.41 18.935000000000002
36 1 2.705 8.115 16.23
37 1 0 5.41 21.64
38 1 0 8.115 24.345
39 1 2.705 5.41 24.345
40 1 2.705 8.115 21.64
41 1 0 10.82 0
42 1 0 13.525 2.705
43 1 2.705 10.82 2.705
44 1 2.705 13.525 0
45 1 0 10.82 5.41
46 1 0 13.525 8.115
47 1 2.705 10.82 8.115
48 1 2.705 13.525 5.41
49 1 0 10.82 10.82
50 1 0 13.525 13.525
51 1 2.705 10.82 13.525
52 1 2.705 13.525 10.82
53 1 0 10.82 16.23
54 1 0 13.525 18.935000000000002
55 1 2.705 10.82 18.935000000000002
56 1 2.705 13.525 16.23
57 1 0 10.82 21.64
58 1 0 13.525 24.345
59 1 2.705 10.82 24.345
60 1 2.705 13.525 21.64
61 1 0 16.23 0
62 1 0 18.935000000000002 2.705
63 1 2.705 16.23 2.705
64 1 2.705 18.935000000000002 0
65 1 0 16.23 5.41
66 1 0 18.935000000000002 8.115
67 1 2.705 16.23 8.115
68 1 2.705 18.935000000000002 5.41
69 1 0 16.23 10.82
70 1 0 18.935000000000002 13.525
71 1 2.705 16.23 13.525
72 1 2.705 18.935000000000002 10.82
73 1 0 16.23 16.23
74 1 0 18.935000000000002 18.935000000000002
75 1 2.705 16.23 18.935000000000002
76 1 2.705 18.935000000000002 16.23
77 1 0 16.23 21.64
78 1 0 18.935000000000002 24.345
79 1 2.705 16.23 24.345
80 1 2.705 18.935000000000002 21.64
81 1 0 21.64 0
82 1 0 24.345 2.705
83 1 2.705 21.64 2.705
84 1 2.705 24.345 0
85 1 0 21.64 5.41
86 1 0 24.345 8.115
87 1 2.705 21.64 8.115
88 1 2.705 24.345 5.41
89 1 0 21.64 10.82
90 1 0 24.345 13.525
91 1 2.705 21.64 13.525
92 1 2.705 24.345 10.82
93 1 0 21.64 16.23
94 1 0 24.345 18.935000000000002
95 1 2.705 21.64 18.935000000000002
96 1 2.705 24.345 16.23
97 1 0 21.64 21.64
98 1 0 24.345 24.345
99 1 2.705 21.64 24.345
100 1 2.705 24.345 21.64
101 1 5.41 0 0
102 1 5.41 2.705 2.705
103 1 8.115 0 2.705
104 1 8.115 2.705 0
105 1 5.41 0 5.41
106 1 5.41 2.705 8.115
107 1 8.115 0 8.115
108 1 8.115 2.705 5.41
109 1 5.41 0 10.82
110 1 5.41 2.705 13.525
111 1 8.115 0 13.525
112 1 8.115 2.705 10.82
113 1 5.41 0 16.23
114 1 5.41 2.705 18.935000000000002
115 1 8.115 0 18.935000000000002
116 1 8.115 2.705 16.23
117 1 5.41 0 21.64
118 1 5.41 2.705 24.345
119 1 8.115 0 24.345
120 1 8.115 2.705 21.64
121 1 5.41 5.41 0
122 1 5.41 8.115 2.705
123 1 8.115 5.41 2.705
124 1 8.115 8.115 0
125 1 5.41 5.41 5.41
126 1 5.41 8.115 8.115
127 1 8.115 5.41 8.115
128 1 8.115 8.115 5.41
129 1 5.41 5.41 10.82
130 1 5.41 8.115 13.525
131 1 8.115 5.41 13.525
132 1 8.115 8.115 10.82
133 1 5.41 5.41 16.23
134 1 5.41 8.115 18.935000000000002
135 1 8.115 5.41 18.935000000000002
136 1 8.115 8.115 16.23
137 1 5.41 5.41 21.64
138 1 5.41 8.115 24.345
139 1 8.115 5.41 24.345
140 1 8.115 8.115 21.64
141 1 5.41 10.82 0
142 1 5.41 13.525 2.705
143 1 8.115 10.82 2.705
144 1 8.115 13.525 0
145 1 5.41 10.82 5.41
146 1 5.41 13.525 8.115
147 1 8.115 10.82 8.115
148 1 8.115 13.525 5.41
149 1 5.41 10.82 10.82
150 1 5.41 13.525 13.525
151 1 8.115 10.82 13.525
152 1 8.115 13.525 10.82
153 1 5.41 10.82 16.23
154 1 5.41 13.525 18.935000000000002
155 1 8.115 10.82 18.935000000000002
156 1 8.115 13.525 16.23
157 1 5.41 10.82 21.64
158 1 5.41 13.525 24.345
159 1 8.115 10.82 24.345
160 1 8.115 13.525 21.64
161 1 5.41 16.23 0
162 1 5.41 18.935000000000002 2.705
163 1 8.115 16.23 2.705
164 1 8.115 18.935000000000002 0
165 1 5.41 16.23 5.41
166 1 5.41 18.935000000000002 8.115
167 1 8.115 16.23 8.115
168 1 8.115 18.935000000000002 5.41
169 1 5.41 16.23 10.82
170 1 5.41 18.935000000000002 13.525
171 1 8.115 16.23 13.525
172 1 8.115 18.935000000000002 10.82
173 1 5.41 16.23 16.23
174 1 5.41 18.935000000000002 18.935000000000002
175 1 8.115 16.23 18.935000000000002
176 1 8.115 18.935000000000002 16.23
177 1 5.41 16.23 21.64
178 1 5.41 18.935000000000002 24.345
179 1 8.115 16.23 24.345
180 1 8.115 18.935000000000002 21.64
181 1 5.41 21.64 0
182 1 5.41 24.345 2.705
183 1 8.115 21.64 2.705
184 1 8.115 24.345 0
185 1 5.41 21.64 5.41
186 1 5.41 24.345 8.115
187 1 8.115 21.64 8.115
188 1 8.115 24.345 5.41
189 1 5.41 21.64 10.82
190 1 5.41 24.345 13.525
191 1 8.115 21.64 13.525
192 1 8.115 24.345 10.82
193 1 5.41 21.64 16.23
194 1 5.41 24.345 18.935000000000002
195 1 8.115 21.64 18.935000000000002
196 1 8.115 24.345 16.23
197 1 5.41 21.64 21.64
198 1 5.41 24.345 24.345
199 1 8.115 21.64 24.345
200 1 8.115 24.345 21.64
201 1 10.82 0 0
202 1 10.82 2.705 2.705
203 1 13.525 0 2.705
204 1 13.525 2.705 0
205 1 10.82 0 5.41
206 1 10.82 2.705 8.115
207 1 13.525 0 8.115
208 1 13.525 2.705 5.41
209 1 10.82 0 10.82
210 1 10.82 2.705 13.525
211 1 13.525 0 13.525
212 1 13.525 2.705 10.82
213 1 10.82 0 16.23
214 1 10.82 2.705 18.935000000000002
215 1 13.525 0 18.935000000000002
216 1 13.525 2.705 16.23
217 1 10.82 0 21.64
218 1 10.82 2.705 24.345
219 1 13.525 0 24.345
220 1 13.525 2.705 21.64
221 1 10.82 5.41 0
222 1 10.82 8.115 2.705
223 1 13.525 5.41 2.705
224 1 13.525 8.115 0
225 1 10.82 5.41 5.41
226 1 10.82 8.115 8.115
227 1 13.525 5.41 8.115
228 1 13.525 8.115 5.41
229 1 10.82 5.41 10.82
230 1 10.82 8.115 13.525
231 1 13.525 5.41 13.525
232 1 13.525 8.115 10.82
233 1 10.82 5.41 16.23
234 1 10.82 8.115 18.935000000000002
235 1 13.525 5.41 18.935000000000002
236 1 13.525 8.115 16.23
237 1 10.82 5.41 21.64
238 1 10.82 8.115 24.345
239 1 13.525 5.41 24.345
240 1 13.525 8.115 21.64
241 1 10.82 10.82 0
242 1 10.82 13.525 2.705
243 1 13.525 10.82 2.705
244 1 13.525 13.525 0
245 1 10.82 10.82 5.41
246 1 10.82 13.525 8.115
247 1 13.525 10.82 8.115
248 1 13.525 13.525 5.41
249 1 10.82 10.82 10.82
250 1 10.82 13.525 13.525
251 1 13.525 10.82 13.525
252 1 13.525 13.525 10.82
253 1 10.82 10.82 16.23
254 1 10.82 13.525 18.935000000000002
255 1 13.525 10.82 18.935000000000002
256 1 13.525 13.525 16.23
257 1 10.82 10.82 21.64
258 1 10.82 13.525 24.345
259 1 13.525 10.82 24.345
260 1 13.525 13.525 21.64
261 1 10.82 16.23 0
262 1 10.82 18.935000000000002 2.705
263 1 13.525 16.23 2.705
264 1 13.525 18.935000000000002 0
265 1 10.82 16.23 5.41
266 1 10.82 18.935000000000002 8.115
267 1 13.525 16.23 8.115
268 1 13.525 18.935000000000002 5.41
269 1 10.82 16.23 10.82
270 1 10.82 18.935000000000002 13.525
271 1 13.525 16.23 13.525
272 1 13.525 18.935000000000002 10.82
273 1 10.82 16.23 16.23
274 1 10.82 18.935000000000002 18.935000000000002
275 1 13.525 16.23 18.935000000000002
276 1 13.525 18.935000000000002 16.23
277 1 10.82 16.23 21.64
278 1 10.82 18.935000000000002 24.345
279 1 13.525 16.23 24.345
280 1 13.525 18.935000000000002 21.64
281 1 10.82 21.64 0
282 1 10.82 24.345 2.705
283 1 13.525 21.64 2.705
284 1 13.525 24.345 0
285 1 10.82 21.64 5.41
286 1 10.82 24.345 8.115
287 1 13.525 21.64 8.115
288 1 13.525 24.345 5.41
289 1 10.82 21.64 10.82
290 1 10.82 24.345 13.525
291 1 13.525 21.64 13.525
292 1 13.525 24.345 10.82
293 1 10.82 21.64 16.23
294 1 10.82 24.345 18.935000000000002
295 1 13.525 21.64 18.935000000000002
296 1 13.525 24.345 16.23
297 1 10.82 21.64 21.64
298 1 10.82 24.345 24.345
299 1 13.525 21.64 24.345
300 1 13.525 24.345 21.64
301 1 16.23 0 0
302 1 16.23 2.705 2.705
303 1 18.935000000000002 0 2.705
304 1 18.935000000000002 2.705 0
305 1 16.23 0 5.41
306 1 16.23 2.705 8.115
307 1 18.935000000000002 0 8.115
308 1 18.935000000000002 2.705 5.41
309 1 16.23 0 10.82
310 1 16.23 2.705 13.525
311 1 18.935000000000002 0 13.525
312 1 18.935000000000002 2.705 10.82
313 1 16.23 0 16.23
314 1 16.23 2.705 18.935000000000002
315 1 18.935000000000002 0 18.935000000000002
316 1 18.935000000000002 2.705 16.23
317 1 16.23 0 21.64
318 1 16.23 2.705 24.345
319 1 18.935000000000002 0 24.345
320 1 18.935000000000002 2.705 21.64
321 1 16.23 5.41 0
322 1 16.23 8.115 2.705
323 1 18.935000000000002 5.41 2.705
324 1 18.935000000000002 8.115 0
325 1 16.23 5.41 5.41
326 1 16.23 8.115 8.115
327 1 18.935000000000002 5.41 8.115
328 1 18.935000000000002 8.115 5.41
329 1 16.23 5.41 10.82
330 1 16.23 8.115 13.525
331 1 18.935000000000002 5.41 13.525
332 1 18.935000000000002 8.115 10.82
333 1 16.23 5.41 16.23
334 1 16.23 8.115 18.935000000000002
335 1 18.935000000000002 5.41 18.935000000000002
336 1 18.935000000000002 8.115 16.23
337 1 16.23 5.41 21.64
338 1 16.23 8.115 24.345
339 1 18.935000000000002 5.41 24.345
340 1 18.935000000000002 8.115 21.64
341 1 16.23 10.82 0
342 1 16.23 13.525 2.705
343 1 18.935000000000002 10.82 2.705
344 1 18.935000000000002 13.525 0
345 1 16.23 10.82 5.41
346 1 16.23 13.525 8.115
347 1 18.935000000000002 10.82 8.115
348 1 18.935000000000002 13.525 5.41
349 1 16.23 10.82 10.82
350 1 16.23 13.525 13.525
351 1 18.935000000000002 10.82 13.525
352 1 18.935000000000002 13.525 10.82
353 1 16.23 10.82 16.23
354 1 16.23 13.525 18.935000000000002
355 1 18.935000000000002 10.82 18.935000000000002
356 1 18.935000000000002 13.525 16.23
357 1 16.23 10.82 21.64
358 1 16.23 13.525 24.345
359 1 18.935000000000002 10.82 24.345
360 1 18.935000000000002 13.525 21.64
361 1 16.23 16.23 0
362 1 16.23 18.935000000000002 2.705
363 1 18.935000000000002 16.23 2.705
364 1 18.935000000000002 18.935000000000002 0
365 1 16.23 16.23 5.41
366 1 16.23 18.935000000000002 8.115
367 1 18.935000000000002 16.23 8.115
368 1 18.935000000000002 18.935000000000002 5.41
369 1 16.23 16.23 10.82
370 1 16.23 18.935000000000002 13.525
371 1 18.935000000000002 16.23 13.525
372 1 18.935000000000002 18.935000000000002 10.82
373 1 16.23 16.23 16.23
374 1 16.23 18.935000000000002 18.935000000000002
375 1 18.935000000000002 16.23 18.935000000000002
376 1 18.935000000000002 18.935000000000002 16.23
377 1 16.23 16.23 21.64
378 1 16.23 18.935000000000002 24.345
379 1 18.935000000000002 16.23 24.345
380 1 18.935000000000002 18.935000000000002 21.64
381 1 16.23 21.64 0
382 1 16.23 24.345 2.705
383 1 18.935000000000002 21.64 2.705
384 1 18.935000000000002 24.345 0
385 1 16.23 21.64 5.41
386 1 16.23 24.345 8.115
387 1 18.935000000000002 21.64 8.115
388 1 18.935000000000002 24.345 5.41
389 1 16.23 21.64 10.82
390 1 16.23 24.345 13.525
391 1 18.935000000000002 21.64 13.525
392 1 18.935000000000002 24.345 10.82
393 1 16.23 21.64 16.23
394 1 16.23 24.345 18.935000000000002
395 1 18.935000000000002 21.64 18.935000000000002
396 1 18.935000000000002 24.345 16.23
397 1 16.23 21.64 21.64
398 1 16.23 24.345 24.345
399 1 18.935000000000002 21.64 24.345
400 1 18.935000000000002 24.345 21.64
401 1 21.64 0 0
402 1 21.64 2.705 2.705
403 1 24.345 0 2.705
404 1 24.345 2.705 0
405 1 21.64 0 5.41
406 1 21.64 2.705 8.115
407 1 24.345 0 8.115
408 1 24.345 2.705 5.41
409 1 21.64 0 10.82
410 1 21.64 2.705 13.525
411 1 24.345 0 13.525
412 1 24.345 2.705 10.82
413 1 21.64 0 16.23
414 1 21.64 2.705 18.935000000000002
415 1 24.345 0 18.935000000000002
416 1 24.345 2.705 16.23
417 1 21.64 0 21.64
418 1 21.64 2.705 24.345
419 1 24.345 0 24.345
420 1 24.345 2.705 21.64
421 1 21.64 5.41 0
422 1 21.64 8.115 2.705
423 1 24.345 5.41 2.705
424 1 24.345 8.115 0
425 1 21.64 5.41 5.41
426 1 21.64 8.115 8.115
427 1 24.345 5.41 8.115
428 1 24.345 8.115 5.41
429 1 21.64 5.41 10.82
430 1 21.64 8.115 13.525
431 1 24.345 5.41 13.525
432 1 24.345 8.115 10.82
433 1 21.64 5.41 16.23
434 1 21.64 8.115 18.935000000000002
435 1 24.345 5.41 18.935000000000002
436 1 24.345 8.115 16.23
437 1 21.64 5.41 21.64
438 1 21.64 8.115 24.345
439 1 24.345 5.41 24.345
440 1 24.345 8.115 21.64
441 1 21.64 10.82 0
442 1 21.64 13.525 2.705
443 1 24.345 10.82 2.705
444 1 24.345 13.525 0
445 1 21.64 10.82 5.41
446 1 21.64 13.525 8.115
447 1 24.345 10.82 8.115
448 1 24.345 13.525 5.41
449 1 21.64 10.82 10.82
450 1 21.64 13.525 13.525
451 1 24.345 10.82 13.525
452 1 24.345 13.525 10.82
453 1 21.64 10.82 16.23
454 1 21.64 13.525 18.935000000000002
455 1 24.345 10.82 18.935000000000002
456 1 24.345 13.525 16.23
457 1 21.64 10.82 21.64
458 1 21.64 13.525 24.345
459 1 24.345 10.82 24.345
460 1 24.345 13.525 21.64
461 1 21.64 16.23 0
462 1 21.64 18.935000000000002 2.705
463 1 24.345 16.23 2.705
464 1 24.345 18.935000000000002 0
465 1 21.64 16.23 5.41
466 1 21.64 18.935000000000002 8.115
467 1 24.345 16.23 8.115
468 1 24.345 18.935000000000002 5.41
469 1 21.64 16.23 10.82
470 1 21.64 18.935000000000002 13.525
471 1 24.345 16.23 13.525
472 1 24.345 18.935000000000002 10.82
473 1 21.64 16.23 16.23
474 1 21.64 18.935000000000002 18.935000000000002
475 1 24.345 16.23 18.935000000000002
476 1 24.345 18.935000000000002 16.23
477 1 21.64 16.23 21.64
478 1 21.64 18.935000000000002 24.345
479 1 24.345 16.23 24.345
480 1 24.345 18.935000000000002 21.64
481 1 21.64 21.64 0
482 1 21.64 24.345 2.705
483 1 24.345 21.64 2.705
484 1 24.345 24.345 0
485 1 21.64 21.64 5.41
486 1 21.64 24.345 8.115
487 1 24.345 21.64 8.115
488 1 24.345 24.345 5.41
489 1 21.64 21.64 10.82
490 1 21.64 24.345 13.525
491 1 24.345 21.64 13.525
492 1 24.345 24.345 10.82
493 1 21.64 21.64 16.23
494 1 21.64 24.345 18.935000000000002
495 1 24.345 21.64 18.935000000000002
496 1 24.345 24.345 16.23
497 1 21.64 21.64 21.64
498 1 21.64 24.345 24.345
499 1 24.345 21.64 24.345
500 1 24.345 24.345 21.64
